 Gaussian 09, Revision B.01,
 Gaussian 09:  AM64L-G09RevB.01 12-Aug-2010

 ---------------------------------
 #p MP2/cc-pVDZ scfcyc=50 opt freq
 ---------------------------------

 ------
 (H2O)6
 ------
 Symbolic Z-matrix:
 Charge =  0 Multiplicity = 1

 SCF Done:  E(RHF) =  -456.224833095     A.U. after   11 cycles
 E2 =    -0.1256967536D+01 EUMP2 =    -0.45748180063151D+03
 SCF Done:  E(RHF) =  -456.227135855     A.U. after    9 cycles
 E2 =    -0.1255139416D+01 EUMP2 =    -0.45748227527141D+03
 SCF Done:  E(RHF) =  -456.227909957     A.U. after    9 cycles
 E2 =    -0.1254472398D+01 EUMP2 =    -0.45748238235486D+03
 SCF Done:  E(RHF) =  -456.229051060     A.U. after    9 cycles
 E2 =    -0.1253424497D+01 EUMP2 =    -0.45748247555676D+03
 SCF Done:  E(RHF) =  -456.229567934     A.U. after    9 cycles
 E2 =    -0.1252934103D+01 EUMP2 =    -0.45748250203650D+03
 SCF Done:  E(RHF) =  -456.229697473     A.U. after    8 cycles
 E2 =    -0.1252806574D+01 EUMP2 =    -0.45748250404701D+03
 SCF Done:  E(RHF) =  -456.229783993     A.U. after    8 cycles
 E2 =    -0.1252722948D+01 EUMP2 =    -0.45748250694162D+03
 SCF Done:  E(RHF) =  -456.229719826     A.U. after    8 cycles
 E2 =    -0.1252790633D+01 EUMP2 =    -0.45748251045936D+03
 SCF Done:  E(RHF) =  -456.229675996     A.U. after    8 cycles
 E2 =    -0.1252835333D+01 EUMP2 =    -0.45748251132951D+03
 SCF Done:  E(RHF) =  -456.229652801     A.U. after    7 cycles
 E2 =    -0.1252859239D+01 EUMP2 =    -0.45748251203997D+03
 SCF Done:  E(RHF) =  -456.229648380     A.U. after    7 cycles
 E2 =    -0.1252864449D+01 EUMP2 =    -0.45748251282874D+03
 SCF Done:  E(RHF) =  -456.229644370     A.U. after    7 cycles
 E2 =    -0.1252868900D+01 EUMP2 =    -0.45748251327030D+03
 SCF Done:  E(RHF) =  -456.229633223     A.U. after    8 cycles
 E2 =    -0.1252880529D+01 EUMP2 =    -0.45748251375189D+03
 SCF Done:  E(RHF) =  -456.229631516     A.U. after    7 cycles
 E2 =    -0.1252882404D+01 EUMP2 =    -0.45748251392043D+03
 SCF Done:  E(RHF) =  -456.229635347     A.U. after    7 cycles
 E2 =    -0.1252878752D+01 EUMP2 =    -0.45748251409927D+03
 Optimization completed.
    -- Stationary point found.
 Normal termination of Gaussian 09 at Tue Dec 13 10:31:49 2011.

 ---------------------------------------------------------------------
 #P Geom=AllCheck Guess=TCheck SCRF=Check GenChk RMP2(FC)/CC-pVDZ Freq
 ---------------------------------------------------------------------

 (H2O)6
 ------
 Redundant internal coordinates taken from checkpoint file:
 h2o_6-mp2dz.chk
 Charge =  0 Multiplicity = 1

                         Standard orientation:
 ---------------------------------------------------------------------
 Center     Atomic      Atomic             Coordinates (Angstroms)
 Number     Number       Type             X           Y           Z
 ---------------------------------------------------------------------
      1          8           0        1.429066   -0.972205   -1.242934
      2          1           0        0.476243   -1.075831   -1.426807
      3          1           0        1.484495   -1.252564   -0.304884
      4          8           0       -1.410262   -0.913533   -1.332328
      5          1           0       -1.995418   -1.560343   -1.746537
      6          1           0       -1.575376   -1.017353   -0.371737
      7          8           0       -1.450494   -0.439290    1.363924
      8          1           0       -1.425578    0.477275    0.972818
      9          1           0       -2.140306   -0.395728    2.038693
     10          8           0        1.352593   -0.893258    1.543455
     11          1           0        1.592122    0.031305    1.366915
     12          1           0        0.388046   -0.820922    1.666329
     13          8           0       -1.248422    1.741059   -0.133402
     14          1           0       -0.270766    1.832598   -0.178164
     15          1           0       -1.433456    1.191576   -0.912670
     16          8           0        1.477603    1.467511   -0.178369
     17          1           0        2.167787    2.033893   -0.546272
     18          1           0        1.531536    0.633820   -0.720459
 ---------------------------------------------------------------------

 SCF Done:  E(RHF) =  -456.229635347     A.U. after    1 cycles
 E2 =    -0.1252878746D+01 EUMP2 =    -0.45748251409243D+03
 E2 =    -0.1252878746D+01 EUMP2 =    -0.45748251409243D+03

 The electronic state is 1-A.
 Alpha  occ. eigenvalues --  -20.58262 -20.57919 -20.56540 -20.55534 -20.54001
 Alpha  occ. eigenvalues --  -20.53861  -1.37472  -1.35670  -1.35356  -1.33554
 Alpha  occ. eigenvalues --   -1.32330  -1.31467  -0.74755  -0.72014  -0.71399
 Alpha  occ. eigenvalues --   -0.70177  -0.68760  -0.68007  -0.61653  -0.61462
 Alpha  occ. eigenvalues --   -0.59083  -0.58215  -0.57424  -0.54893  -0.52007
 Alpha  occ. eigenvalues --   -0.51193  -0.50318  -0.49228  -0.48264  -0.47024
 Alpha virt. eigenvalues --    0.15500   0.19140   0.19790   0.27290   0.27505
 Alpha virt. eigenvalues --    0.30820   0.34901   0.36690   0.37942   0.40071
 Alpha virt. eigenvalues --    0.41036   0.42699   0.70564   0.70710   0.73091

 Mulliken atomic charges:
              1
     1  O   -0.390538
     2  H    0.189204
     3  H    0.191277
     4  O   -0.360979
     5  H    0.177004
     6  H    0.195697
     7  O   -0.394016
     8  H    0.225854
     9  H    0.179751
    10  O   -0.372930
    11  H    0.172021
    12  H    0.187651
    13  O   -0.383602
    14  H    0.212999
    15  H    0.176973
    16  O   -0.398659
    17  H    0.176427
    18  H    0.215869
 Sum of Mulliken atomic charges =   0.00000

 Dipole moment (field-independent basis, Debye):
    X=             -3.0052    Y=              0.2141    Z=             -0.4291  Tot=              3.0433
 Quadrupole moment (field-independent basis, Debye-Ang):
   XX=            -32.9961   YY=            -39.4207   ZZ=            -37.7502
   XY=             13.4366   XZ=             -2.4307   YZ=              1.0269

  Exact polarizability:  39.580   3.742  37.335  -1.440   0.338  37.672
 Approx polarizability:  29.389   2.712  28.474  -1.102   0.274  28.780

                     1                      2                      3
                     A                      A                      A
 Frequencies --    68.5698                75.0892                80.4815
 Red. masses --     6.3705                 6.8677                 6.6653
 Frc consts  --     0.0176                 0.0228                 0.0254
 IR Inten    --     3.6515                 1.0615                 0.5933

                     4                      5                      6
                     A                      A                      A
 Frequencies --   136.0685               143.8619               194.4532
 Red. masses --     4.0684                 5.1330                 4.7638
 Frc consts  --     0.0444                 0.0626                 0.1061
 IR Inten    --     0.7441                 0.4518                 6.2217

                     7                      8                      9
                     A                      A                      A
 Frequencies --   208.5064               225.6262               229.6943
 Red. masses --     5.3022                 1.3764                 5.4343
 Frc consts  --     0.1358                 0.0413                 0.1689
 IR Inten    --     5.3743                25.3476                16.9363

                    10                     11                     12
                     A                      A                      A
 Frequencies --   236.8567               243.3573               264.3192
 Red. masses --     4.6538                 3.6948                 1.4456
 Frc consts  --     0.1538                 0.1289                 0.0595
 IR Inten    --     1.4804                14.3640                14.8245

                    13                     14                     15
                     A                      A                      A
 Frequencies --   285.9917               295.4282               306.6985
 Red. masses --     1.5259                 4.0514                 2.2685
 Frc consts  --     0.0735                 0.2083                 0.1257
 IR Inten    --    17.2287                23.4693                44.8788

                    16                     17                     18
                     A                      A                      A
 Frequencies --   429.2174               454.4443               484.9136
 Red. masses --     1.0697                 1.0542                 1.0770
 Frc consts  --     0.1161                 0.1283                 0.1492
 IR Inten    --   115.6591                73.9015                11.6925

                    19                     20                     21
                     A                      A                      A
 Frequencies --   497.3817               550.5815               553.9859
 Red. masses --     1.0472                 1.0479                 1.0549
 Frc consts  --     0.1526                 0.1872                 0.1907
 IR Inten    --   116.4564               181.1687                89.9110

                    22                     23                     24
                     A                      A                      A
 Frequencies --   578.2517               617.2339               683.1588
 Red. masses --     1.0608                 1.0760                 1.0420
 Frc consts  --     0.2090                 0.2415                 0.2865
 IR Inten    --   286.5464               100.1953                62.2589

                    25                     26                     27
                     A                      A                      A
 Frequencies --   718.2889               744.7360               816.1285
 Red. masses --     1.0368                 1.0520                 1.0715
 Frc consts  --     0.3152                 0.3438                 0.4205
 IR Inten    --   164.0284               249.7496               313.6104

                    28                     29                     30
                     A                      A                      A
 Frequencies --   891.2438              1066.7006              1088.0611
 Red. masses --     1.0707                 1.0362                 1.0378
 Frc consts  --     0.5011                 0.6947                 0.7239
 IR Inten    --    15.4879                33.9884               139.6311

                    31                     32                     33
                     A                      A                      A
 Frequencies --  1682.5073              1702.8203              1709.8270
 Red. masses --     1.0724                 1.0713                 1.0675
 Frc consts  --     1.7886                 1.8302                 1.8388
 IR Inten    --    64.8418               133.3387                63.2507

                    34                     35                     36
                     A                      A                      A
 Frequencies --  1739.0222              1743.2375              1755.3125
 Red. masses --     1.0701                 1.0689                 1.0692
 Frc consts  --     1.9067                 1.9138                 1.9410
 IR Inten    --    42.9836                28.5184                59.2265

                    37                     38                     39
                     A                      A                      A
 Frequencies --  3278.1493              3318.2885              3599.6762
 Red. masses --     1.0662                 1.0655                 1.0593
 Frc consts  --     6.7504                 6.9127                 8.0874
 IR Inten    --   245.3633              1206.7468               481.9936

                    40                     41                     42
                     A                      A                      A
 Frequencies --  3619.6616              3632.6932              3727.5741
 Red. masses --     1.0612                 1.0535                 1.0555
 Frc consts  --     8.1918                 8.1908                 8.6411
 IR Inten    --    16.4303               642.4815                59.9317

                    43                     44                     45
                     A                      A                      A
 Frequencies --  3749.5675              3827.3059              3836.3605
 Red. masses --     1.0673                 1.0684                 1.0747
 Frc consts  --     8.8411                 9.2208                 9.3194
 IR Inten    --   583.8482               157.2433               337.1672

                    46                     47                     48
                     A                      A                      A
 Frequencies --  3907.8567              3910.6212              3919.0265
 Red. masses --     1.0663                 1.0663                 1.0699
 Frc consts  --     9.5942                 9.6074                 9.6820
 IR Inten    --    68.2619                55.0136                79.1917

 - Thermochemistry -
 -------------------
 Temperature   298.150 Kelvin.  Pressure   1.00000 Atm.
 Atom     1 has atomic number  8 and mass  15.99491

 Molecular mass:   108.06339 amu.
 Principal axes and moments of inertia in atomic units:
                           1         2         3
     Eigenvalues --  1007.633691263.548021281.25325
           X            0.99709   0.07580  -0.00762
           Y           -0.07520   0.99530   0.06101
           Z            0.01221  -0.06026   0.99811
 This molecule is an asymmetric top.
 Rotational symmetry number  1.
 Warning -- assumption of classical behavior for rotation
           may cause significant error
 Rotational temperatures (Kelvin)      0.08596     0.06855     0.06760
 Rotational constants (GHZ):           1.79107     1.42831     1.40857
 Zero-point vibrational energy     405706.5 (Joules/Mol)
                                   96.96619 (Kcal/Mol)
 Warning -- explicit consideration of  23 degrees of freedom as
           vibrations may cause significant error
 Vibrational temperatures:     98.66   108.04   115.79   195.77   206.98
          (Kelvin)            279.77   299.99   324.63   330.48   340.78
                              350.14   380.30   411.48   425.05   441.27
                              617.55   653.84   697.68   715.62   792.16
                              797.06   831.97   888.06   982.91  1033.46
                             1071.51  1174.23  1282.30  1534.74  1565.48
                             2420.75  2449.98  2460.06  2502.06  2508.13
                             2525.50  4716.52  4774.27  5179.12  5207.88
                             5226.63  5363.14  5394.78  5506.63  5519.66
                             5622.53  5626.50  5638.60

 Zero-point correction=                           0.154525 (Hartree/Particle)
 Thermal correction to Energy=                    0.168150
 Thermal correction to Enthalpy=                  0.169095
 Thermal correction to Gibbs Free Energy=         0.116598
 Sum of electronic and zero-point Energies=           -457.327989
 Sum of electronic and thermal Energies=              -457.314364
 Sum of electronic and thermal Enthalpies=            -457.313419
 Sum of electronic and thermal Free Energies=         -457.365916

                     E (Thermal)             CV                S
                      KCal/Mol        Cal/Mol-Kelvin    Cal/Mol-Kelvin
 Total                  105.516             47.281            110.489
 Electronic               0.000              0.000              0.000
 Translational            0.889              2.981             39.949
 Rotational               0.889              2.981             28.880
 Vibrational            103.739             41.319             41.660
 Vibration     1          0.598              1.969              4.194
 Vibration     2          0.599              1.966              4.015
 Vibration     3          0.600              1.962              3.879
 Vibration     4          0.614              1.917              2.858
 Vibration     5          0.616              1.909              2.752
 Vibration     6          0.635              1.848              2.185
 Vibration     7          0.642              1.828              2.057
 Vibration     8          0.650              1.802              1.913
 Vibration     9          0.652              1.796              1.881
 Vibration    10          0.656              1.784              1.826
 Vibration    11          0.659              1.774              1.778
 Vibration    12          0.671              1.738              1.633
 Vibration    13          0.684              1.700              1.498
 Vibration    14          0.690              1.682              1.443
 Vibration    15          0.697              1.661              1.380
 Vibration    16          0.791              1.407              0.861
 Vibration    17          0.813              1.351              0.782
 Vibration    18          0.841              1.284              0.697
 Vibration    19          0.853              1.256              0.665
 Vibration    20          0.906              1.138              0.543
 Vibration    21          0.909              1.131              0.536
 Vibration    22          0.935              1.078              0.489
 Vibration    23          0.977              0.995              0.421

 Normal termination of Gaussian 09 at Tue Dec 13 10:40:10 2011.
