 Gaussian 09, Revision B.01,
 Gaussian 09:  AM64L-G09RevB.01 12-Aug-2010

 ------------------------------
 #p MP2/cc-pVDZ Opt Freq=hpmode
 ------------------------------

 --------------------------
 c2h4 Frequency MP2/cc-pVDZ
 --------------------------
 Symbolic Z-matrix:
 Charge =  0 Multiplicity = 1

 SCF Done:  E(RHF) =  -77.9899414328     A.U. after    9 cycles
 E2 =    -0.2626353968D+00 EUMP2 =    -0.78252576829598D+02
 SCF Done:  E(RHF) =  -78.0375029261     A.U. after    9 cycles
 E2 =    -0.2712974800D+00 EUMP2 =    -0.78308800406098D+02
 SCF Done:  E(RHF) =  -78.0388547905     A.U. after    8 cycles
 E2 =    -0.2762486411D+00 EUMP2 =    -0.78315103431677D+02
 SCF Done:  E(RHF) =  -78.0391901040     A.U. after    7 cycles
 E2 =    -0.2760866401D+00 EUMP2 =    -0.78315276744161D+02
 SCF Done:  E(RHF) =  -78.0391029007     A.U. after    7 cycles
 E2 =    -0.2761982855D+00 EUMP2 =    -0.78315301186176D+02
 SCF Done:  E(RHF) =  -78.0390565379     A.U. after    6 cycles
 E2 =    -0.2762452674D+00 EUMP2 =    -0.78315301805333D+02
 Optimization completed.
    -- Stationary point found.
 Normal termination of Gaussian 09 at Sat Apr 21 15:48:06 2012.

 ---------------------------------------------------------------------
 #P Geom=AllCheck Guess=TCheck SCRF=Check GenChk RMP2(FC)/CC-pVDZ Freq
 ---------------------------------------------------------------------

 c2h4 Frequency MP2/cc-pVDZ
 --------------------------
 Redundant internal coordinates taken from checkpoint file:
 eq-mp2dz.chk
 Charge =  0 Multiplicity = 1

                         Standard orientation:
 ---------------------------------------------------------------------
 Center     Atomic      Atomic             Coordinates (Angstroms)
 Number     Number       Type             X           Y           Z
 ---------------------------------------------------------------------
      1          6           0        0.000000    0.000000    0.672754
      2          6           0        0.000000    0.000000   -0.672754
      3          1           0        0.000000    0.934704    1.242707
      4          1           0        0.000000   -0.934704    1.242707
      5          1           0        0.000000    0.934704   -1.242707
      6          1           0        0.000000   -0.934704   -1.242707
 ---------------------------------------------------------------------

 SCF Done:  E(RHF) =  -78.0390565379     A.U. after    1 cycles
 E2 =    -0.2762452676D+00 EUMP2 =    -0.78315301805492D+02
 E2 =    -0.2762452676D+00 EUMP2 =    -0.78315301805492D+02

 The electronic state is 1-AG.
 Alpha  occ. eigenvalues --  -11.24074 -11.23919  -1.02634  -0.78637  -0.63460
 Alpha  occ. eigenvalues --   -0.57904  -0.50200  -0.37155
 Alpha virt. eigenvalues --    0.16519   0.20216   0.23145   0.23623   0.30214
 Alpha virt. eigenvalues --    0.45956   0.58149   0.60899   0.69110   0.70407
 Alpha virt. eigenvalues --    0.77119   0.80609   0.86005   0.92577   0.96386

 Mulliken atomic charges:
              1
     1  C   -0.107652
     2  C   -0.107652
     3  H    0.053826
     4  H    0.053826
     5  H    0.053826
     6  H    0.053826
 Sum of Mulliken atomic charges =   0.00000

 Dipole moment (field-independent basis, Debye):
    X=              0.0000    Y=              0.0000    Z=              0.0000  Tot=              0.0000
 Quadrupole moment (field-independent basis, Debye-Ang):
   XX=            -15.6800   YY=            -12.3134   ZZ=            -12.1618
   XY=              0.0000   XZ=              0.0000   YZ=              0.0000

  Exact polarizability:  10.451   0.000  21.295   0.000   0.000  30.938
 Approx polarizability:  10.853   0.000  17.330   0.000   0.000  28.082

                     1                      2                      3
                    B2U                    B2G                    B3U
 Frequencies --   825.3248               935.7033               972.6476
 Red. masses --     1.0416                 1.5126                 1.1607
 Frc consts  --     0.4180                 0.7803                 0.6470
 IR Inten    --     0.4432                 0.0000                80.1163

                     4                      5                      6
                    AU                     B3G                    AG
 Frequencies --  1065.3172              1235.9193              1375.8427
 Red. masses --     1.0078                 1.5211                 1.2348
 Frc consts  --     0.6739                 1.3690                 1.3772
 IR Inten    --     0.0000                 0.0000                 0.0000

                     7                      8                      9
                    B1U                    AG                     B1U
 Frequencies --  1467.0266              1687.4878              3187.9719
 Red. masses --     1.1131                 3.0512                 1.0467
 Frc consts  --     1.4115                 5.1192                 6.2675
 IR Inten    --     6.1771                 0.0000                 9.9130

                    10                     11                     12
                    AG                     B3G                    B2U
 Frequencies --  3206.5464              3285.8280              3311.5022
 Red. masses --     1.0750                 1.1146                 1.1189
 Frc consts  --     6.5124                 7.0902                 7.2293
 IR Inten    --     0.0000                 0.0000                17.0048

 - Thermochemistry -
 -------------------
 Temperature   298.150 Kelvin.  Pressure   1.00000 Atm.
 Atom     1 has atomic number  6 and mass  12.00000

 Molecular mass:    28.03130 amu.
 Principal axes and moments of inertia in atomic units:
                           1         2         3
     Eigenvalues --    12.57741  61.02225  73.59966
           X            0.00000   0.00000   1.00000
           Y            0.00000   1.00000   0.00000
           Z            1.00000   0.00000   0.00000
 This molecule is an asymmetric top.
 Rotational symmetry number  4.
 Rotational temperatures (Kelvin)      6.88646     1.41938     1.17682
 Rotational constants (GHZ):         143.49072    29.57513    24.52105
 Zero-point vibrational energy     134921.5 (Joules/Mol)
                                   32.24702 (Kcal/Mol)
 Vibrational temperatures:   1187.46  1346.27  1399.42  1532.75  1778.21
          (Kelvin)           1979.53  2110.72  2427.92  4586.77  4613.50
                             4727.57  4764.51

 Zero-point correction=                           0.051389 (Hartree/Particle)
 Thermal correction to Energy=                    0.054440
 Thermal correction to Enthalpy=                  0.055384
 Thermal correction to Gibbs Free Energy=         0.030484
 Sum of electronic and zero-point Energies=            -78.263913
 Sum of electronic and thermal Energies=               -78.260862
 Sum of electronic and thermal Enthalpies=             -78.259918
 Sum of electronic and thermal Free Energies=          -78.284817

                     E (Thermal)             CV                S
                      KCal/Mol        Cal/Mol-Kelvin    Cal/Mol-Kelvin
 Total                   34.162              8.164             52.406
 Electronic               0.000              0.000              0.000
 Translational            0.889              2.981             35.927
 Rotational               0.889              2.981             15.920
 Vibrational             32.384              2.202              0.559

 Optimization completed.
    -- Stationary point found.
 Normal termination of Gaussian 09 at Sat Apr 21 15:48:16 2012.
