 Gaussian 09, Revision C.01,
 Gaussian 09:  EM64L-G09RevC.01 23-Sep-2011

 -------------------------
 #p B3LYP/cc-pVDZ opt freq
 -------------------------

 (Enter /home/mdsoft/gaussian/g09/l101.exe)
 -----------------
 H2O B3LYP/cc-pVDZ
 -----------------
 Charge =  0 Multiplicity = 1

 SCF Done:  E(RB3LYP) =  -76.3650575659     A.U. after   10 cycles
 SCF Done:  E(RB3LYP) =  -76.4039872675     A.U. after   10 cycles
 SCF Done:  E(RB3LYP) =  -76.4192457198     A.U. after   10 cycles
 SCF Done:  E(RB3LYP) =  -76.4206229929     A.U. after    9 cycles
 SCF Done:  E(RB3LYP) =  -76.4206264828     A.U. after    6 cycles
 Optimization completed.
    -- Stationary point found.
 Normal termination of Gaussian 09 at Tue Aug 26 12:59:01 2014.

 -------------------------------------------------------------------
 #P Geom=AllCheck Guess=TCheck SCRF=Check GenChk RB3LYP/CC-pVDZ Freq
 -------------------------------------------------------------------

 Structure from the checkpoint file:  h2o.chk
 -----------------
 H2O B3LYP/cc-pVDZ
 -----------------
 Charge =  0 Multiplicity = 1

                         Standard orientation:
 ---------------------------------------------------------------------
 Center     Atomic      Atomic             Coordinates (Angstroms)
 Number     Number       Type             X           Y           Z
 ---------------------------------------------------------------------
      1          8           0        0.000000    0.000000    0.121033
      2          1           0        0.000000    0.756302   -0.484133
      3          1           0        0.000000   -0.756302   -0.484133
 ---------------------------------------------------------------------

 SCF Done:  E(RB3LYP) =  -76.4206264828     A.U. after    1 cycles

 The electronic state is 1-A1.
 Alpha  occ. eigenvalues --  -19.12474  -0.99198  -0.50673  -0.36757  -0.28777
 Alpha virt. eigenvalues --    0.04922   0.12519   0.54951   0.61186   0.90395
 Alpha virt. eigenvalues --    0.91811   0.99620   1.19006   1.23658   1.41618
 Alpha virt. eigenvalues --    1.59077   1.67018   2.09000   2.13178   2.92100

 Mulliken atomic charges:
              1
     1  O   -0.262478
     2  H    0.131239
     3  H    0.131239
 Sum of Mulliken atomic charges =   0.00000

 Dipole moment (field-independent basis, Debye):
    X=              0.0000    Y=              0.0000    Z=             -1.9388  Tot=              1.9388
 Quadrupole moment (field-independent basis, Debye-Ang):
   XX=             -6.9999   YY=             -4.3368   ZZ=             -5.8754
   XY=              0.0000   XZ=              0.0000   YZ=              0.0000

  Exact polarizability:   3.203   0.000   7.403   0.000   0.000   5.593
 Approx polarizability:   3.395   0.000   9.088   0.000   0.000   7.056

                     1                      2                      3
                    A1                     A1                     B2
 Frequencies --  1659.3961              3752.6147              3853.4946
 Red. masses --     1.0819                 1.0458                 1.0800
 Frc consts  --     1.7553                 8.6774                 9.4492
 IR Inten    --    55.6708                 2.9236                19.8906

 - Thermochemistry -
 -------------------
 Temperature   298.150 Kelvin.  Pressure   1.00000 Atm.
 Atom     1 has atomic number  8 and mass  15.99491

 Molecular mass:    18.01056 amu.
 Principal axes and moments of inertia in atomic units:
                           1         2         3
     Eigenvalues --     2.34108   4.11721   6.45829
           X            0.00000   0.00000   1.00000
           Y            1.00000   0.00000   0.00000
           Z            0.00000   1.00000   0.00000
 This molecule is an asymmetric top.
 Rotational symmetry number  2.
 Rotational temperatures (Kelvin)     36.99734    21.03702    13.41126
 Rotational constants (GHZ):         770.90049   438.34083   279.44560
 Zero-point vibrational energy      55420.0 (Joules/Mol)
                                   13.24570 (Kcal/Mol)
 Vibrational temperatures:   2387.50  5399.17  5544.31
          (Kelvin)

 Zero-point correction=                           0.021108 (Hartree/Particle)
 Thermal correction to Energy=                    0.023943
 Thermal correction to Enthalpy=                  0.024888
 Thermal correction to Gibbs Free Energy=         0.003438
 Sum of electronic and zero-point Energies=            -76.399518
 Sum of electronic and thermal Energies=               -76.396683
 Sum of electronic and thermal Enthalpies=             -76.395739
 Sum of electronic and thermal Free Energies=          -76.417188

                     E (Thermal)             CV                S
                      KCal/Mol        Cal/Mol-Kelvin    Cal/Mol-Kelvin
 Total                   15.025              6.004             45.144
 Electronic               0.000              0.000              0.000
 Translational            0.889              2.981             34.608
 Rotational               0.889              2.981             10.530
 Vibrational             13.247              0.042              0.006

 Optimization completed.
    -- Stationary point found.
 Normal termination of Gaussian 09 at Tue Aug 26 12:59:04 2014.
