 Gaussian 09, Revision D.01,
 Gaussian 09:  EM64M-G09RevD.01 24-Apr-2013

 -------------------------
 #p b3lyp/cc-pvdz opt freq
 -------------------------

 -----------------------------
 H2CO b3lyp/cc-pvdz (opt/freq)
 -----------------------------
 Symbolic Z-matrix:
 Charge =  0 Multiplicity = 1

 SCF Done:  E(RB3LYP) =  -114.507091934     A.U. after   11 cycles
 SCF Done:  E(RB3LYP) =  -114.507607822     A.U. after    9 cycles
 SCF Done:  E(RB3LYP) =  -114.507640145     A.U. after    8 cycles
 Optimization completed.
    -- Stationary point found.
 Normal termination of Gaussian 09 at Tue May  9 14:08:36 2017.

 -------------------------------------------------------------------
 #P Geom=AllCheck Guess=TCheck SCRF=Check GenChk RB3LYP/CC-pVDZ Freq
 -------------------------------------------------------------------

 Structure from the checkpoint file:  "h2co-b3lyp-dz.chk"
 -----------------------------
 H2CO b3lyp/cc-pvdz (opt/freq)
 -----------------------------
 Charge =  0 Multiplicity = 1

                         Standard orientation:
 ---------------------------------------------------------------------
 Center     Atomic      Atomic             Coordinates (Angstroms)
 Number     Number       Type             X           Y           Z
 ---------------------------------------------------------------------
      1          6           0        0.000000    0.000000   -0.527031
      2          8           0        0.000000    0.000000    0.677167
      3          1           0        0.000000    0.945964   -1.127575
      4          1           0        0.000000   -0.945964   -1.127575
 ---------------------------------------------------------------------

 SCF Done:  E(RB3LYP) =  -114.507640145     A.U. after    1 cycles

 The electronic state is 1-A1.
 Alpha  occ. eigenvalues --  -19.16015 -10.28984  -1.06342  -0.63279  -0.49193
 Alpha  occ. eigenvalues --   -0.45018  -0.40069  -0.26705
 Alpha virt. eigenvalues --   -0.04414   0.06516   0.13328   0.20822   0.44981
 Alpha virt. eigenvalues --    0.46219   0.53702   0.58744   0.63177   0.75917
 Alpha virt. eigenvalues --    0.87162   0.92586   0.97895   1.05359   1.16496

 Mulliken charges:
               1
     1  C    0.162219
     2  O   -0.179538
     3  H    0.008659
     4  H    0.008659
 Sum of Mulliken charges =   0.00000

 Dipole moment (field-independent basis, Debye):
    X=              0.0000    Y=              0.0000    Z=             -2.0696  Tot=              2.0696
 Quadrupole moment (field-independent basis, Debye-Ang):
   XX=            -11.4125   YY=            -11.5753   ZZ=            -11.9176
   XY=              0.0000   XZ=              0.0000   YZ=              0.0000

  Exact polarizability:   7.439   0.000  14.634   0.000   0.000  18.604
 Approx polarizability:   9.974   0.000  17.257   0.000   0.000  31.395

                      1                      2                      3
                     B1                     B2                     A1
 Frequencies --   1186.9258              1254.0254              1515.1241
 Red. masses --      1.3734                 1.3482                 1.1008
 Frc consts  --      1.1400                 1.2491                 1.4889
 IR Inten    --      1.5766                15.9782                 5.7844

                      4                      5                      6
                     A1                     A1                     B2
 Frequencies --   1831.7986              2863.0642              2916.2717
 Red. masses --      7.5829                 1.0452                 1.1213
 Frc consts  --     14.9913                 5.0479                 5.6188
 IR Inten    --    108.8065                59.4730               177.0970

 - Thermochemistry -
 -------------------
 Temperature   298.150 Kelvin.  Pressure   1.00000 Atm.
 Atom     1 has atomic number  6 and mass  12.00000

 Molecular mass:    30.01056 amu.
 Principal axes and moments of inertia in atomic units:
                           1         2         3
     Eigenvalues --     6.44114  46.65288  53.09402
           X            0.00000   0.00000   1.00000
           Y            0.00000   1.00000   0.00000
           Z            1.00000   0.00000   0.00000
 This molecule is an asymmetric top.
 Rotational symmetry number  2.
 Rotational temperatures (Kelvin)     13.44698     1.85656     1.63133
 Rotational constants (GHZ):         280.18989    38.68445    33.99142
 Zero-point vibrational energy      69187.3 (Joules/Mol)
                                   16.53616 (Kcal/Mol)
 Vibrational temperatures:   1707.72  1804.26  2179.92  2635.55  4119.31
          (Kelvin)           4195.86

 Zero-point correction=                           0.026352 (Hartree/Particle)
 Thermal correction to Energy=                    0.029222
 Thermal correction to Enthalpy=                  0.030166
 Thermal correction to Gibbs Free Energy=         0.005334
 Sum of electronic and zero-point Energies=           -114.481288
 Sum of electronic and thermal Energies=              -114.478419
 Sum of electronic and thermal Enthalpies=            -114.477474
 Sum of electronic and thermal Free Energies=         -114.502306

                     E (Thermal)             CV                S
                      KCal/Mol        Cal/Mol-Kelvin    Cal/Mol-Kelvin
 Total                   18.337              6.442             52.262
 Electronic               0.000              0.000              0.000
 Translational            0.889              2.981             36.130
 Rotational               0.889              2.981             16.041
 Vibrational             16.559              0.480              0.091

 Optimization completed.
    -- Stationary point found.
 Normal termination of Gaussian 09 at Tue May  9 14:08:40 2017.
